-- Generated [
-- Format      : ECLIPSE keywords (grid geometry and properties) (ASCII)
-- Exported by : Petrel 2017.4 Schlumberger
-- User name   : user
-- Date        : Wednesday, January 04 2023 02:14:44
-- Project     : alyani_400134038.pet
-- Grid        : 400134032_project
-- Generated ]

SPECGRID                               -- Generated : Petrel
  50 50 10 1 F /

COORDSYS                               -- Generated : Petrel
  1 10 INCOMP /

COORD                                  -- Generated : Petrel
  0 0 4420 0 0 5200 200 0 4409.961426 200 0 5181.748535 400 0 4399.767578 400 0 5163.213867 600 0 4389.321289 600 0 5144.220703 800
  0 4378.609863 800 0 5124.745117 1000 0 4367.650391 1000 0 5104.818848 1200 0 4356.501953 1200 0 5084.549316 1400 0 4345.251465
  1400 0 5064.09375 1600 0 4333.984375 1600 0 5043.60791 1800 0 4322.790039 1800 0 5023.254395 2000 0 4311.769531 2000 0 5003.217773
  2200 0 4301.041504 2200 0 4983.711914 2400 0 4290.732422 2400 0 4964.967773 2600 0 4280.964355 2600 0 4947.208008 2800 0
  4271.841309 2800 0 4930.621094 3000 0 4263.446289 3000 0 4915.356934 3200 0 4255.844727 3200 0 4901.535645 3400 0 4249.085937 3400
  0 4889.24707 3600 0 4243.203613 3600 0 4878.551758 3800 0 4238.220215 3800 0 4869.491211 4000 0 4234.147461 4000 0 4862.086426
  4200 0 4230.986816 4200 0 4856.339844 4400 0 4228.733398 4400 0 4852.242676 4600 0 4227.376465 4600 0 4849.774902 4800 0
  4226.898926 4800 0 4848.907227 5000 0 4227.280762 5000 0 4849.601562 5200 0 4228.498047 5200 0 4851.814453 5400 0 4230.522461 5400
  0 4855.495605 5600 0 4233.324219 5600 0 4860.589844 5800 0 4236.873047 5800 0 4867.041992 6000 0 4241.138672 6000 0 4874.797363
  6200 0 4246.091309 6200 0 4883.802246 6400 0 4251.701172 6400 0 4894.002441 6600 0 4257.938477 6600 0 4905.342773 6800 0
  4264.770996 6800 0 4917.765625 7000 0 4272.166504 7000 0 4931.211426 7200 0 4280.089844 7200 0 4945.618164 7400 0 4288.504883 7400
  0 4960.918457 7600 0 4297.37207 7600 0 4977.040039 7800 0 4306.646484 7800 0 4993.902832 8000 0 4316.27832 8000 0 5011.415527 8200
  0 4326.213867 8200 0 5029.47998 8400 0 4336.39502 8400 0 5047.990723 8600 0 4346.760742 8600 0 5066.837891 8800 0 4357.250977 8800
  0 5085.910645 9000 0 4367.806152 9000 0 5105.101562 9200 0 4378.370605 9200 0 5124.310059 9400 0 4388.894531 9400 0 5143.444824
  9600 0 4399.342285 9600 0 5162.439941 9800 0 4409.70166 9800 0 5181.275879 10000 0 4420 10000 0 5200 0 200 4407.976074 0 200
  5178.138184 200 200 4398.141113 200 200 5160.256836 400 200 4388.276855 400 200 5142.321289 600 200 4378.285156 600 200
  5124.154785 800 200 4368.128418 800 200 5105.6875 1000 200 4357.811523 1000 200 5086.929687 1200 200 4347.378418 1200 200
  5067.960449 1400 200 4336.890137 1400 200 5048.891113 1600 200 4326.41748 1600 200 5029.850098 1800 200 4316.043457 1800 200
  5010.988281 2000 200 4305.86377 2000 200 4992.47998 2200 200 4295.984863 2200 200 4974.518555 2400 200 4286.516113 2400 200
  4957.302246 2600 200 4277.560547 2600 200 4941.019043 2800 200 4269.207031 2800 200 4925.830566 3000 200 4261.529785 3000 200
  4911.872559 3200 200 4254.590332 3200 200 4899.254883 3400 200 4248.433594 3400 200 4888.061035 3600 200 4243.092773 3600 200
  4878.350586 3800 200 4238.590332 3800 200 4870.164551 4000 200 4234.9375 4000 200 4863.522461 4200 200 4232.136719 4200 200
  4858.430176 4400 200 4230.184082 4400 200 4854.879883 4600 200 4229.069336 4600 200 4852.853027 4800 200 4228.776855 4800 200
  4852.321777 5000 200 4229.288086 5000 200 4853.250977 5200 200 4230.579102 5200 200 4855.598145 5400 200 4232.624023 5400 200
  4859.315918 5600 200 4235.39502 5600 200 4864.35498 5800 200 4238.864746 5800 200 4870.663574 6000 200 4243.004883 6000 200
  4878.190918 6200 200 4247.787598 6200 200 4886.88623 6400 200 4253.184082 6400 200 4896.698242 6600 200 4259.165527 6600 200
  4907.57373 6800 200 4265.70166 6800 200 4919.45752 7000 200 4272.761719 7000 200 4932.293457 7200 200 4280.311523 7200 200
  4946.020508 7400 200 4288.315918 7400 200 4960.574219 7600 200 4296.736328 7600 200 4975.884277 7800 200 4305.530762 7800 200
  4991.873535 8000 200 4314.651855 8000 200 5008.458008 8200 200 4324.05127 8200 200 5025.547852 8400 200 4333.67627 8400 200
  5043.047363 8600 200 4343.473145 8600 200 5060.86084 8800 200 4353.390625 8800 200 5078.891602 9000 200 4363.376953 9000 200
  5097.048828 9200 200 4373.385742 9200 200 5115.24707 9400 200 4383.379395 9400 200 5133.416992 9600 200 4393.333008 9600 200
  5151.515137 9800 200 4403.243652 9800 200 5169.533691 10000 200 4413.135742 10000 200 5187.519043 0 400 4395.820312 0 400
  5156.036621 200 400 4386.332031 200 400 5138.785156 400 400 4376.888672 400 400 5121.615723 600 400 4367.387695 600 400
  5104.341309 800 400 4357.783203 800 400 5086.878906 1000 400 4348.077637 1000 400 5069.231934 1200 400 4338.30127 1200 400
  5051.456543 1400 400 4328.5 1400 400 5033.63623 1600 400 4318.736328 1600 400 5015.884277 1800 400 4309.089355 1800 400
  4998.344238 2000 400 4299.650391 2000 400 4981.182129 2200 400 4290.51709 2200 400 4964.577148 2400 400 4281.788086 2400 400
  4948.706055 2600 400 4273.553223 2600 400 4933.73291 2800 400 4265.890625 2800 400 4919.80127 3000 400 4258.867676 3000 400
  4907.032227 3200 400 4252.539551 3200 400 4895.526367 3400 400 4246.947754 3400 400 4885.359375 3600 400 4242.123047 3600 400
  4876.587891 3800 400 4238.086426 3800 400 4869.248047 4000 400 4234.847168 4000 400 4863.358398 4200 400 4232.408203 4200 400
  4858.923828 4400 400 4230.76416 4400 400 4855.935059 4600 400 4229.905762 4600 400 4854.374512 4800 400 4229.817383 4800 400
  4854.213867 5000 400 4230.479492 5000 400 4855.41748 5200 400 4231.869141 5200 400 4857.944336 5400 400 4233.961426 5400 400
  4861.748535 5600 400 4236.730957 5600 400 4866.783203 5800 400 4240.150391 5800 400 4873.000488 6000 400 4244.194336 6000 400
  4880.353516 6200 400 4248.836914 6200 400 4888.793945 6400 400 4254.050781 6400 400 4898.273926 6600 400 4259.809082 6600 400
  4908.743164 6800 400 4266.083008 6800 400 4920.150391 7000 400 4272.842773 7000 400 4932.441406 7200 400 4280.057129 7200 400
  4945.558105 7400 400 4287.691895 7400 400 4959.439453 7600 400 4295.709961 7600 400 4974.018066 7800 400 4304.071777 7800 400
  4989.221191 8000 400 4312.733398 8000 400 5004.969238 8200 400 4321.648926 8200 400 5021.179687 8400 400 4330.771484 8400 400
  5037.766113 8600 400 4340.053223 8600 400 5054.64209 8800 400 4349.448242 8800 400 5071.723633 9000 400 4358.911621 9000 400
  5088.930176 9200 400 4368.402832 9200 400 5106.187012 9400 400 4377.891113 9400 400 5123.437988 9600 400 4387.356934 9600 400
  5140.648926 9800 400 4396.797363 9800 400 5157.812988 10000 400 4406.230469 10000 400 5174.963867 0 600 4383.470703 0 600
  5133.583496 200 600 4374.450684 200 600 5117.183105 400 600 4365.50293 400 600 5100.914062 600 600 4356.528809 600 600 5084.597656
  800 600 4347.486816 800 600 5068.157715 1000 600 4338.374023 1000 600 5051.588867 1200 600 4329.209961 1200 600 5034.927734 1400
  600 4320.035645 1400 600 5018.246582 1600 600 4310.912109 1600 600 5001.658691 1800 600 4301.918945 1800 600 4985.307129 2000 600
  4293.143555 2000 600 4969.351562 2200 600 4284.677246 2200 600 4953.958984 2400 600 4276.609375 2400 600 4939.290039 2600 600
  4269.020508 2600 600 4925.491699 2800 600 4261.982422 2800 600 4912.695312 3000 600 4255.556152 3000 600 4901.011719 3200 600
  4249.79248 3200 600 4890.53125 3400 600 4244.729004 3400 600 4881.325195 3600 600 4240.394043 3600 600 4873.443848 3800 600
  4236.805176 3800 600 4866.918945 4000 600 4233.971191 4000 600 4861.765137 4200 600 4231.891602 4200 600 4857.984863 4400 600
  4230.561523 4400 600 4855.565918 4600 600 4229.969238 4600 600 4854.489258 4800 600 4230.098145 4800 600 4854.723633 5000 600
  4230.928223 5000 600 4856.233398 5200 600 4232.437012 5200 600 4858.976562 5400 600 4234.599121 5400 600 4862.907715 5600 600
  4237.390625 5600 600 4867.98291 5800 600 4240.786133 5800 600 4874.15625 6000 600 4244.76123 6000 600 4881.383789 6200 600
  4249.291504 6200 600 4889.621094 6400 600 4254.352539 6400 600 4898.822754 6600 600 4259.918457 6600 600 4908.942871 6800 600
  4265.962891 6800 600 4919.933105 7000 600 4272.458008 7000 600 4931.741699 7200 600 4279.373535 7200 600 4944.31543 7400 600
  4286.677246 7400 600 4957.594727 7600 600 4294.333984 7600 600 4971.516602 7800 600 4302.305664 7800 600 4986.010742 8000 600
  4310.551758 8000 600 5001.003418 8200 600 4319.029297 8200 600 5016.416992 8400 600 4327.694824 8400 600 5032.172852 8600 600
  4336.505859 8600 600 5048.192383 8800 600 4345.42041 8800 600 5064.400391 9000 600 4354.397949 9000 600 5080.723633 9200 600
  4363.402344 9200 600 5097.095215 9400 600 4372.405273 9400 600 5113.464355 9600 600 4381.38916 9600 600 5129.798828 9800 600
  4390.34668 9800 600 5146.084473 10000 600 4399.287109 10000 600 5162.340332 0 800 4370.924805 0 800 5110.772949 200 800
  4362.469727 200 800 5095.399902 400 800 4354.077637 400 800 5080.141113 600 800 4345.666016 600 800 5064.847656 800 800
  4337.195801 800 800 5049.446777 1000 800 4328.658691 1000 800 5033.924805 1200 800 4320.072266 1200 800 5018.312988 1400 800
  4311.479492 1400 800 5002.689941 1600 800 4302.945801 1600 800 4987.174316 1800 800 4294.551758 1800 800 4971.912109 2000 800
  4286.381348 2000 800 4957.057129 2200 800 4278.520508 2200 800 4942.764648 2400 800 4271.05127 2400 800 4929.184082 2600 800
  4264.048828 2600 800 4916.452148 2800 800 4257.580078 2800 800 4904.690918 3000 800 4251.70166 3000 800 4894.003418 3200 800
  4246.460937 3200 800 4884.474609 3400 800 4241.893066 3400 800 4876.168945 3600 800 4238.022461 3600 800 4869.131348 3800 800
  4234.86377 3800 800 4863.388672 4000 800 4232.42334 4000 800 4858.951172 4200 800 4230.69873 4200 800 4855.815918 4400 800
  4229.683105 4400 800 4853.96875 4600 800 4229.361816 4600 800 4853.385254 4800 800 4229.717773 4800 800 4854.031738 5000 800
  4230.728516 5000 800 4855.870117 5200 800 4232.371582 5200 800 4858.857422 5400 800 4234.621582 5400 800 4862.948242 5600 800
  4237.455078 5600 800 4868.100098 5800 800 4240.848145 5800 800 4874.269531 6000 800 4244.77832 6000 800 4881.415039 6200 800
  4249.222168 6200 800 4889.495117 6400 800 4254.157227 6400 800 4898.467773 6600 800 4259.560059 6600 800 4908.290527 6800 800
  4265.405273 6800 800 4918.918457 7000 800 4271.666992 7000 800 4930.303711 7200 800 4278.316895 7200 800 4942.394531 7400 800
  4285.324707 7400 800 4955.135742 7600 800 4292.656738 7600 800 4968.466797 7800 800 4300.276367 7800 800 4982.321289 8000 800
  4308.145996 8000 800 4996.628906 8200 800 4316.224609 8200 800 5011.317871 8400 800 4324.473145 8400 800 5026.314453 8600 800
  4332.851074 8600 800 5041.547363 8800 800 4341.320801 8800 800 5056.946777 9000 800 4349.844727 9000 800 5072.444824 9200 800
  4358.388184 9200 800 5087.979004 9400 800 4366.924316 9400 800 5103.498535 9600 800 4375.432129 9600 800 5118.967773 9800 800
  4383.901367 9800 800 5134.366211 10000 800 4392.333496 10000 800 5149.697266 0 1000 4358.212891 0 1000 5087.659668 200 1000
  4350.401367 200 1000 5073.457031 400 1000 4342.618164 400 1000 5059.305664 600 1000 4334.796875 600 1000 5045.084961 800 1000
  4326.899902 800 1000 5030.727539 1000 1000 4318.922363 1000 1000 5016.222656 1200 1000 4310.887207 1200 1000 5001.61377 1400 1000
  4302.844727 1400 1000 4986.990723 1600 1000 4294.865234 1600 1000 4972.482422 1800 1000 4287.029297 1800 1000 4958.234863 2000
  1000 4279.418457 2000 1000 4944.396973 2200 1000 4272.11377 2200 1000 4931.115723 2400 1000 4265.193359 2400 1000 4918.533203 2600
  1000 4258.728516 2600 1000 4906.778809 2800 1000 4252.783691 2800 1000 4895.970215 3000 1000 4247.413086 3000 1000 4886.205078
  3200 1000 4242.660156 3200 1000 4877.563965 3400 1000 4238.558105 3400 1000 4870.105469 3600 1000 4235.128418 3600 1000
  4863.870117 3800 1000 4232.382812 3800 1000 4858.87793 4000 1000 4230.324219 4000 1000 4855.135254 4200 1000 4228.948242 4200 1000
  4852.633789 4400 1000 4228.244629 4400 1000 4851.353516 4600 1000 4228.196289 4600 1000 4851.266113 4800 1000 4228.783691 4800
  1000 4852.334473 5000 1000 4229.983887 5000 1000 4854.516113 5200 1000 4231.771973 5200 1000 4857.76709 5400 1000 4234.123047 5400
  1000 4862.041992 5600 1000 4237.01416 5600 1000 4867.298828 5800 1000 4240.422852 5800 1000 4873.496582 6000 1000 4244.327637 6000
  1000 4880.595703 6200 1000 4248.706543 6200 1000 4888.557617 6400 1000 4253.539551 6400 1000 4897.344238 6600 1000 4258.803711
  6600 1000 4906.916016 6800 1000 4264.476562 6800 1000 4917.22998 7000 1000 4270.533203 7000 1000 4928.242187 7200 1000 4276.947266
  7200 1000 4939.904297 7400 1000 4283.689941 7400 1000 4952.163574 7600 1000 4290.729004 7600 1000 4964.961914 7800 1000
  4298.030273 7800 1000 4978.237305 8000 1000 4305.557617 8000 1000 4991.922852 8200 1000 4313.272461 8200 1000 5005.950195 8400
  1000 4321.138184 8400 1000 5020.250977 8600 1000 4329.116699 8600 1000 5034.757812 8800 1000 4337.172852 8800 1000 5049.404785
  9000 1000 4345.27002 9000 1000 5064.127441 9200 1000 4353.375977 9200 1000 5078.865234 9400 1000 4361.460937 9400 1000 5093.565918
  9600 1000 4369.50293 9600 1000 5108.187012 9800 1000 4377.48584 9800 1000 5122.701172 10000 1000 4385.404785 10000 1000
  5137.099121 0 1200 4345.398926 0 1200 5064.361816 200 1200 4338.291504 200 1200 5051.439453 400 1200 4331.155762 400 1200
  5038.465332 600 1200 4323.939453 600 1200 5025.344238 800 1200 4316.61377 800 1200 5012.024902 1000 1200 4309.184082 1000 1200
  4998.516113 1200 1200 4301.682617 1200 1200 4984.87793 1400 1200 4294.168457 1400 1200 4971.215332 1600 1200 4286.71582 1600 1200
  4957.665039 1800 1200 4279.404785 1800 1200 4944.372559 2000 1200 4272.315918 2000 1200 4931.483398 2200 1200 4265.527344 2200
  1200 4919.141113 2400 1200 4259.114746 2400 1200 4907.481445 2600 1200 4253.148437 2600 1200 4896.633301 2800 1200 4247.689941
  2800 1200 4886.708984 3000 1200 4242.792969 3000 1200 4877.805176 3200 1200 4238.498535 3200 1200 4869.99707 3400 1200 4234.836914
  3400 1200 4863.339844 3600 1200 4231.827637 3600 1200 4857.868652 3800 1200 4229.479004 3800 1200 4853.598145 4000 1200
  4227.790527 4000 1200 4850.527832 4200 1200 4226.754883 4200 1200 4848.64502 4400 1200 4226.358398 4400 1200 4847.924316 4600 1200
  4226.582031 4600 1200 4848.331055 4800 1200 4227.40332 4800 1200 4849.82373 5000 1200 4228.796387 5000 1200 4852.357422 5200 1200
  4230.736328 5200 1200 4855.884277 5400 1200 4233.197754 5400 1200 4860.359863 5600 1200 4236.158203 5600 1200 4865.742187 5800
  1200 4239.595703 5800 1200 4871.992187 6000 1200 4243.490234 6000 1200 4879.073242 6200 1200 4247.822266 6200 1200 4886.949707
  6400 1200 4252.572266 6400 1200 4895.585937 6600 1200 4257.719238 6600 1200 4904.944336 6800 1200 4263.242676 6800 1200
  4914.986816 7000 1200 4269.118652 7000 1200 4925.67041 7200 1200 4275.322754 7200 1200 4936.950684 7400 1200 4281.827148 7400 1200
  4948.776855 7600 1200 4288.602051 7600 1200 4961.094727 7800 1200 4295.614258 7800 1200 4973.844238 8000 1200 4302.82959 8000 1200
  4986.962891 8200 1200 4310.211914 8200 1200 5000.385254 8400 1200 4317.725098 8400 1200 5014.045898 8600 1200 4325.333984 8600
  1200 5027.880371 8800 1200 4333.003418 8800 1200 5041.824707 9000 1200 4340.69873 9000 1200 5055.816406 9200 1200 4348.387207 9200
  1200 5069.794922 9400 1200 4356.037598 9400 1200 5083.705078 9600 1200 4363.625488 9600 1200 5097.500488 9800 1200 4371.130371
  9800 1200 5111.146484 10000 1200 4378.541016 10000 1200 5124.620117 0 1400 4332.568359 0 1400 5041.033691 200 1400 4326.200684 200
  1400 5029.456055 400 1400 4319.734375 400 1400 5017.69873 600 1400 4313.129883 600 1400 5005.690918 800 1400 4306.374023 800 1400
  4993.407715 1000 1400 4299.48584 1000 1400 4980.883301 1200 1400 4292.508301 1200 1400 4968.197266 1400 1400 4285.506348 1400 1400
  4955.466309 1600 1400 4278.558594 1600 1400 4942.833984 1800 1400 4271.746094 1800 1400 4930.447754 2000 1400 4265.148437 2000
  1400 4918.45166 2200 1400 4258.843262 2200 1400 4906.987793 2400 1400 4252.905273 2400 1400 4896.191406 2600 1400 4247.404297 2600
  1400 4886.189453 2800 1400 4242.401855 2800 1400 4877.09375 3000 1400 4237.949707 3000 1400 4868.999023 3200 1400 4234.087891 3200
  1400 4861.978516 3400 1400 4230.845215 3400 1400 4856.082031 3600 1400 4228.237305 3600 1400 4851.340332 3800 1400 4226.269531
  3800 1400 4847.762695 4000 1400 4224.938965 4000 1400 4845.343262 4200 1400 4224.234375 4200 1400 4844.0625 4400 1400 4224.13916
  4400 1400 4843.88916 4600 1400 4224.630371 4600 1400 4844.782715 4800 1400 4225.683594 4800 1400 4846.697266 5000 1400 4227.270508
  5000 1400 4849.583008 5200 1400 4229.365234 5200 1400 4853.391113 5400 1400 4231.941895 5400 1400 4858.075684 5600 1400
  4234.978027 5600 1400 4863.596191 5800 1400 4238.453125 5800 1400 4869.915039 6000 1400 4242.349121 6000 1400 4876.998047 6200
  1400 4246.646973 6200 1400 4884.812988 6400 1400 4251.329102 6400 1400 4893.325684 6600 1400 4256.376465 6600 1400 4902.502441
  6800 1400 4261.768555 6800 1400 4912.306641 7000 1400 4267.484375 7000 1400 4922.699219 7200 1400 4273.500488 7200 1400
  4933.637207 7400 1400 4279.790039 7400 1400 4945.073242 7600 1400 4286.325195 7600 1400 4956.955078 7800 1400 4293.074219 7800
  1400 4969.226074 8000 1400 4300.004395 8000 1400 4981.826172 8200 1400 4307.081055 8200 1400 4994.692871 8400 1400 4314.269531
  8400 1400 5007.762695 8600 1400 4321.534668 8600 1400 5020.972168 8800 1400 4328.842285 8800 1400 5034.258789 9000 1400
  4336.157715 9000 1400 5047.55957 9200 1400 4343.448242 9200 1400 5060.814453 9400 1400 4350.681152 9400 1400 5073.966309 9600 1400
  4357.830078 9600 1400 5086.963379 9800 1400 4364.870605 9800 1400 5099.765137 10000 1400 4371.785645 10000 1400 5112.337402 0 1600
  4319.801758 0 1600 5017.820801 200 1600 4314.193848 200 1600 5007.625 400 1600 4308.40918 400 1600 4997.107422 600 1600
  4302.422852 600 1600 4986.223633 800 1600 4296.23877 800 1600 4974.979492 1000 1600 4289.889648 1000 1600 4963.436035 1200 1600
  4283.428711 1200 1600 4951.688477 1400 1600 4276.92627 1400 1600 4939.866211 1600 1600 4270.464844 1600 1600 4928.118164 1800 1600
  4264.12793 1800 1600 4916.596191 2000 1600 4257.995605 2000 1600 4905.446289 2200 1600 4252.145996 2200 1600 4894.811035 2400 1600
  4246.654785 2400 1600 4884.82666 2600 1600 4241.591797 2600 1600 4875.621582 2800 1600 4237.019531 2800 1600 4867.308105 3000 1600
  4232.988281 3000 1600 4859.979004 3200 1600 4229.537598 3200 1600 4853.70459 3400 1600 4226.692871 3400 1600 4848.532715 3600 1600
  4224.468262 3600 1600 4844.488281 3800 1600 4222.866699 3800 1600 4841.575684 4000 1600 4221.880859 4000 1600 4839.783203 4200
  1600 4221.49707 4200 1600 4839.084961 4400 1600 4221.693848 4400 1600 4839.443848 4600 1600 4222.446777 4600 1600 4840.8125 4800
  1600 4223.727051 4800 1600 4843.140137 5000 1600 4225.504883 5000 1600 4846.373047 5200 1600 4227.75293 5200 1600 4850.459961 5400
  1600 4230.445312 5400 1600 4855.35498 5600 1600 4233.55957 5600 1600 4861.017578 5800 1600 4237.077148 5800 1600 4867.413086 6000
  1600 4240.980957 6000 1600 4874.510742 6200 1600 4245.253418 6200 1600 4882.279297 6400 1600 4249.878906 6400 1600 4890.688965
  6600 1600 4254.838867 6600 1600 4899.70752 6800 1600 4260.115234 6800 1600 4909.300781 7000 1600 4265.6875 7000 1600 4919.432129
  7200 1600 4271.533691 7200 1600 4930.061035 7400 1600 4277.628418 7400 1600 4941.142578 7600 1600 4283.945312 7600 1600
  4952.627441 7800 1600 4290.453613 7800 1600 4964.460937 8000 1600 4297.12207 8000 1600 4976.585449 8200 1600 4303.916504 8200 1600
  4988.939453 8400 1600 4310.803711 8400 1600 5001.461426 8600 1600 4317.749023 8600 1600 5014.088867 8800 1600 4324.717285 8800
  1600 5026.759277 9000 1600 4331.674805 9000 1600 5039.408691 9200 1600 4338.586914 9200 1600 5051.976074 9400 1600 4345.421387
  9400 1600 5064.402832 9600 1600 4352.148437 9600 1600 5076.633789 9800 1600 4358.741211 9800 1600 5088.620117 10000 1600
  4365.176758 10000 1600 5100.321289 0 1800 4307.177734 0 1800 4994.868652 200 1800 4302.345215 200 1800 4986.082031 400 1800
  4297.251465 400 1800 4976.820801 600 1800 4291.888672 600 1800 4967.070801 800 1800 4286.27832 800 1800 4956.870117 1000 1800
  4280.466309 1000 1800 4946.302246 1200 1800 4274.513672 1200 1800 4935.479492 1400 1800 4268.498047 1400 1800 4924.541992 1600
  1800 4262.505859 1600 1800 4913.647461 1800 1800 4256.624023 1800 1800 4902.952637 2000 1800 4250.93457 2000 1800 4892.60791 2200
  1800 4245.51709 2200 1800 4882.758301 2400 1800 4240.44873 2400 1800 4873.543457 2600 1800 4235.800781 2600 1800 4865.092773 2800
  1800 4231.63623 2800 1800 4857.52002 3000 1800 4228.004395 3000 1800 4850.91748 3200 1800 4224.944336 3200 1800 4845.353027 3400
  1800 4222.479492 3400 1800 4840.871582 3600 1800 4220.621094 3600 1800 4837.493164 3800 1800 4219.370117 3800 1800 4835.218262
  4000 1800 4218.715332 4000 1800 4834.02832 4200 1800 4218.640137 4200 1800 4833.891113 4400 1800 4219.119629 4400 1800 4834.763184
  4600 1800 4220.125 4600 1800 4836.59082 4800 1800 4221.625 4800 1800 4839.317871 5000 1800 4223.587891 5000 1800 4842.886719 5200
  1800 4225.984375 5200 1800 4847.244629 5400 1800 4228.789062 5400 1800 4852.344238 5600 1800 4231.980469 5600 1800 4858.146484
  5800 1800 4235.540527 5800 1800 4864.619629 6000 1800 4239.45459 6000 1800 4871.735352 6200 1800 4243.707031 6200 1800 4879.466797
  6400 1800 4248.282227 6400 1800 4887.786133 6600 1800 4253.164551 6600 1800 4896.663086 6800 1800 4258.336426 6800 1800
  4906.066406 7000 1800 4263.778809 7000 1800 4915.961426 7200 1800 4269.470215 7200 1800 4926.30957 7400 1800 4275.387207 7400 1800
  4937.067871 7600 1800 4281.503906 7600 1800 4948.188965 7800 1800 4287.791504 7800 1800 4959.620605 8000 1800 4294.218262 8000
  1800 4971.306152 8200 1800 4300.75293 8200 1800 4983.187012 8400 1800 4307.360352 8400 1800 4995.200684 8600 1800 4314.007324 8600
  1800 5007.285645 8800 1800 4320.658203 8800 1800 5019.378418 9000 1800 4327.277832 9000 1800 5031.414551 9200 1800 4333.832031
  9200 1800 5043.331543 9400 1800 4340.287598 9400 1800 5055.068848 9600 1800 4346.612305 9600 1800 5066.567871 9800 1800
  4352.775391 9800 1800 5077.773926 10000 1800 4358.750977 10000 1800 5088.638184 0 2000 4294.786621 0 2000 4972.339355 200 2000
  4290.740234 200 2000 4964.982422 400 2000 4286.343262 400 2000 4956.987793 600 2000 4281.606934 600 2000 4948.376465 800 2000
  4276.568848 800 2000 4939.216309 1000 2000 4271.288086 1000 2000 4929.614258 1200 2000 4265.833984 1200 2000 4919.698242 1400 2000
  4260.291504 1400 2000 4909.620605 1600 2000 4254.751953 1600 2000 4899.549316 1800 2000 4249.306152 1800 2000 4889.647461 2000
  2000 4244.039062 2000 2000 4880.070801 2200 2000 4239.032715 2200 2000 4870.96875 2400 2000 4234.366699 2400 2000 4862.484863 2600
  2000 4230.113281 2600 2000 4854.751465 2800 2000 4226.335449 2800 2000 4847.882812 3000 2000 4223.083984 3000 2000 4841.971191
  3200 2000 4220.395508 3200 2000 4837.08252 3400 2000 4218.291992 3400 2000 4833.258301 3600 2000 4216.783691 3600 2000 4830.516113
  3800 2000 4215.867187 3800 2000 4828.849609 4000 2000 4215.529785 4000 2000 4828.236328 4200 2000 4215.750488 4200 2000
  4828.637207 4400 2000 4216.500488 4400 2000 4830.000488 4600 2000 4217.74707 4600 2000 4832.267578 4800 2000 4219.457031 4800 2000
  4835.375977 5000 2000 4221.596191 5000 2000 4839.265625 5200 2000 4224.133789 5200 2000 4843.879883 5400 2000 4227.044922 5400
  2000 4849.172363 5600 2000 4230.307617 5600 2000 4855.10498 5800 2000 4233.907715 5800 2000 4861.649902 6000 2000 4237.830566 6000
  2000 4868.782715 6200 2000 4242.063477 6200 2000 4876.479492 6400 2000 4246.593262 6400 2000 4884.714844 6600 2000 4251.403809
  6600 2000 4893.461426 6800 2000 4256.47998 6800 2000 4902.690918 7000 2000 4261.802734 7000 2000 4912.369141 7200 2000 4267.353027
  7200 2000 4922.459961 7400 2000 4273.106934 7400 2000 4932.921875 7600 2000 4279.040039 7600 2000 4943.708984 7800 2000
  4285.124023 7800 2000 4954.770996 8000 2000 4291.328613 8000 2000 4966.052246 8200 2000 4297.62207 8200 2000 4977.494141 8400 2000
  4303.969727 8400 2000 4989.036133 8600 2000 4310.338379 8600 2000 5000.615234 8800 2000 4316.692383 8800 2000 5012.16748 9000 2000
  4322.995117 9000 2000 5023.62793 9200 2000 4329.212402 9200 2000 5034.931641 9400 2000 4335.30957 9400 2000 5046.01709 9600 2000
  4341.251953 9600 2000 5056.821289 9800 2000 4347.006836 9800 2000 5067.284668 10000 2000 4352.543457 10000 2000 5077.352051 0 2200
  4282.731445 0 2200 4950.42041 200 2200 4279.474609 200 2200 4944.499023 400 2200 4275.772949 400 2200 4937.769531 600 2200
  4271.659668 600 2200 4930.290039 800 2200 4267.187012 800 2200 4922.158691 1000 2200 4262.427734 1000 2200 4913.504883 1200 2200
  4257.459961 1200 2200 4904.472656 1400 2200 4252.375488 1400 2200 4895.228027 1600 2200 4247.271973 1600 2200 4885.949219 1800
  2200 4242.244141 1800 2200 4876.807617 2000 2200 4237.380859 2000 2200 4867.965332 2200 2200 4232.76709 2200 2200 4859.57666 2400
  2200 4228.483887 2400 2200 4851.789062 2600 2200 4224.605957 2600 2200 4844.737793 2800 2200 4221.196289 2800 2200 4838.538574
  3000 2200 4218.305664 3000 2200 4833.283203 3200 2200 4215.970215 3200 2200 4829.036621 3400 2200 4214.210449 3400 2200
  4825.837402 3600 2200 4213.034668 3600 2200 4823.699707 3800 2200 4212.437012 3800 2200 4822.613281 4000 2200 4212.401855 4000
  2200 4822.549316 4200 2200 4212.904297 4200 2200 4823.461914 4400 2200 4213.911133 4400 2200 4825.292969 4600 2200 4215.387207
  4600 2200 4827.976562 4800 2200 4217.294922 4800 2200 4831.445312 5000 2200 4219.599121 5000 2200 4835.634766 5200 2200
  4222.268066 5200 2200 4840.487305 5400 2200 4225.275391 5400 2200 4845.955078 5600 2200 4228.602051 5600 2200 4852.003906 5800
  2200 4232.234863 5800 2200 4858.608398 6000 2200 4236.162598 6000 2200 4865.749512 6200 2200 4240.374023 6200 2200 4873.407715
  6400 2200 4244.858398 6400 2200 4881.560547 6600 2200 4249.601562 6600 2200 4890.184082 6800 2200 4254.587891 6800 2200
  4899.250977 7000 2200 4259.800781 7000 2200 4908.729004 7200 2200 4265.220215 7200 2200 4918.58252 7400 2200 4270.824707 7400 2200
  4928.771973 7600 2200 4276.588867 7600 2200 4939.251953 7800 2200 4282.485352 7800 2200 4949.973145 8000 2200 4288.484375 8000
  2200 4960.880859 8200 2200 4294.554199 8200 2200 4971.916992 8400 2200 4300.661133 8400 2200 4983.020508 8600 2200 4306.770996
  8600 2200 4994.128906 8800 2200 4312.847168 8800 2200 5005.176758 9000 2200 4318.854004 9000 2200 5016.098145 9200 2200
  4324.754883 9200 2200 5026.827148 9400 2200 4330.514648 9400 2200 5037.299316 9600 2200 4336.09668 9600 2200 5047.44873 9800 2200
  4341.46582 9800 2200 5057.210937 10000 2200 4346.588867 10000 2200 5066.525391 0 2400 4271.125 0 2400 4929.317871 200 2400
  4268.646973 200 2400 4924.8125 400 2400 4265.630859 400 2400 4919.328613 600 2400 4262.128418 600 2400 4912.960449 800 2400
  4258.208984 800 2400 4905.834473 1000 2400 4253.957031 1000 2400 4898.103516 1200 2400 4249.460449 1200 2400 4889.927734 1400 2400
  4244.817871 1400 2400 4881.487305 1600 2400 4240.133789 1600 2400 4872.970703 1800 2400 4235.506836 1800 2400 4864.557617 2000
  2400 4231.029297 2000 2400 4856.416992 2200 2400 4226.790039 2200 2400 4848.708984 2400 2400 4222.871582 2400 2400 4841.584473
  2600 2400 4219.350098 2600 2400 4835.181641 2800 2400 4216.289551 2800 2400 4829.617676 3000 2400 4213.741211 3000 2400
  4824.983887 3200 2400 4211.739746 3200 2400 4821.344727 3400 2400 4210.305176 3400 2400 4818.736816 3600 2400 4209.444336 3600
  2400 4817.171387 3800 2400 4209.148926 3800 2400 4816.634766 4000 2400 4209.400391 4000 2400 4817.091797 4200 2400 4210.169434
  4200 2400 4818.489746 4400 2400 4211.419434 4400 2400 4820.762695 4600 2400 4213.110352 4600 2400 4823.837402 4800 2400
  4215.202637 4800 2400 4827.641113 5000 2400 4217.658691 5000 2400 4832.106445 5200 2400 4220.445312 5200 2400 4837.17334 5400 2400
  4223.536621 5400 2400 4842.793945 5600 2400 4226.915527 5600 2400 4848.9375 5800 2400 4230.571289 5800 2400 4855.583984 6000 2400
  4234.496094 6000 2400 4862.720703 6200 2400 4238.682129 6200 2400 4870.331543 6400 2400 4243.119629 6400 2400 4878.399414 6600
  2400 4247.796387 6600 2400 4886.902344 6800 2400 4252.698242 6800 2400 4895.814941 7000 2400 4257.808594 7000 2400 4905.106445
  7200 2400 4263.107422 7200 2400 4914.741211 7400 2400 4268.57373 7400 2400 4924.679199 7600 2400 4274.182129 7600 2400 4934.876465
  7800 2400 4279.905762 7800 2400 4945.283203 8000 2400 4285.714844 8000 2400 4955.845703 8200 2400 4291.578125 8200 2400
  4966.505859 8400 2400 4297.461914 8400 2400 4977.203125 8600 2400 4303.331055 8600 2400 4987.874512 8800 2400 4309.149414 8800
  2400 4998.453613 9000 2400 4314.880371 9000 2400 5008.873535 9200 2400 4320.486328 9200 2400 5019.065918 9400 2400 4325.930664
  9400 2400 5028.964844 9600 2400 4331.175781 9600 2400 5038.501465 9800 2400 4336.184082 9800 2400 5047.60791 10000 2400
  4340.919922 10000 2400 5056.218262 0 2600 4260.080566 0 2600 4909.237305 200 2600 4258.354492 200 2600 4906.098633 400 2600
  4256.001465 400 2600 4901.820801 600 2600 4253.090332 600 2600 4896.52832 800 2600 4249.706055 800 2600 4890.375 1000 2600
  4245.943848 1000 2600 4883.534668 1200 2600 4241.901367 1200 2600 4876.184082 1400 2600 4237.684082 1400 2600 4868.516602 1600
  2600 4233.401855 1600 2600 4860.730469 1800 2600 4229.157715 1800 2600 4853.01416 2000 2600 4225.048828 2000 2600 4845.542969 2200
  2600 4221.165039 2200 2600 4838.482422 2400 2600 4217.592773 2400 2600 4831.987305 2600 2600 4214.40918 2600 2600 4826.198242 2800